<?xml version="1.0"?>
<VTKFile type="UnstructuredGrid" version="0.1" byte_order="LittleEndian">
  <UnstructuredGrid>
    <Piece NumberOfPoints="25857" NumberOfCells="16384">
      <Points>
        <DataArray type="Float64" Name="Coordinates" NumberOfComponents="3" format="ascii">
        0 0 0 0 0 0.0625 0.03125 0 0 0 0.03125 0 
        0 0.0625 0 0.0625 0 0 0.03125 0 0.03125 0 0 0.125 
        0.03125 0 0.0625 0 0.03125 0.0625 0 0.125 0 0 0.0625 0.0625 
        0.03125 0.0625 0 0 0.09375 0 0.03125 0.03125 0.03125 0.125 0 0 
        0.0625 0.0625 0 0.09375 0 0 0.09375 0 0.03125 0.0625 0 0.0625 
        0.0625 0.03125 0 0.03125 0.0625 0.03125 0.03125 0 0.09375 0 0 0.25 
        0 0 0.1875 0.03125 0 0.1875 0 0.03125 0.1875 0 0.0625 0.125 
        0.0625 0 0.125 0.03125 0 0.15625 0.03125 0 0.125 0 0.03125 0.125 
        0.03125 0.0625 0.0625 0 0.09375 0.0625 0.03125 0.03125 0.09375 0.09375 0 0.0625 
        0.0625 0.03125 0.0625 0 0.25 0 0 0.1875 0.0625 0.03125 0.1875 0 
        0 0.21875 0 0 0.1875 0 0.0625 0.125 0 0.03125 0.15625 0.03125 
        0 0.125 0.125 0.03125 0.125 0.0625 0 0.15625 0.0625 0 0.125 0.0625 
        0.03125 0.125 0 0 0.15625 0 0.03125 0.125 0.03125 0.09375 0.0625 0 
        0.09375 0.03125 0.03125 0.0625 0.0625 0.0625 0.0625 0.09375 0 0.03125 0.09375 0.03125 
        0.03125 0.09375 0.09375 0 0.0625 0.1875 0.03125 0.03125 0.15625 0.03125 0.0625 0.125 
        0 0.09375 0.125 0.03125 0.0625 0.09375 0.25 0 0 0.1875 0.0625 0 
        0.21875 0 0 0.21875 0 0.03125 0.1875 0 0.0625 0.1875 0 0 
        0.1875 0.03125 0 0.125 0.125 0 0.15625 0.0625 0 0.15625 0.0625 0.03125 
        0.125 0 0.125 0.125 0.0625 0.0625 0.15625 0 0.0625 0.15625 0 0.09375 
        0.15625 0.03125 0.03125 0.125 0 0.0625 0.15625 0 0 0.125 0.03125 0 
        0.125 0.0625 0 0.15625 0 0.03125 0.125 0.03125 0.0625 0.125 0.09375 0 
        0.0625 0.1875 0 0.03125 0.1875 0.03125 0.0625 0.125 0.0625 0.0625 0.15625 0 
        0.09375 0.125 0 0.09375 0.125 0.03125 0.09375 0.0625 0.0625 0.09375 0.0625 0.09375 
        0.09375 0.09375 0.03125 0.09375 0.0625 0.03125 0.03125 0 0.21875 0.0625 0 0.1875 
        0.03125 0.0625 0.15625 0.0625 0.0625 0.125 0.09375 0 0.125 0.09375 0 0.15625 
        0.0625 0.03125 0.125 0.09375 0 0.09375 0.09375 0.03125 0.09375 0.03125 0.125 0.09375 
        0.0625 0.09375 0.0625 0 0 0.5 0 0 0.4375 0.03125 0 0.4375 
        0 0.03125 0.4375 0 0.0625 0.375 0.0625 0 0.375 0.03125 0 0.40625 
        0 0 0.375 0.03125 0 0.375 0 0.03125 0.375 0 0.125 0.25 
        0 0.0625 0.3125 0.03125 0.0625 0.3125 0 0.09375 0.3125 0.03125 0.03125 0.34375 
        0.125 0 0.25 0.0625 0.0625 0.25 0.09375 0 0.3125 0.09375 0 0.28125 
        0.0625 0 0.3125 0.0625 0.03125 0.3125 0.03125 0.0625 0.28125 0.03125 0 0.34375 
        0 0 0.3125 0.03125 0 0.25 0 0.03125 0.25 0 0.0625 0.25 
        0.0625 0 0.25 0.03125 0 0.28125 0.03125 0 0.3125 0 0.03125 0.3125 
        0.03125 0.0625 0.25 0 0.09375 0.25 0.03125 0.03125 0.28125 0.09375 0 0.25 
        0.0625 0.03125 0.25 0.03125 0.1875 0.0625 0 0.21875 0.0625 0 0.1875 0.125 
        0.0625 0.125 0.125 0.03125 0.15625 0.09375 0.03125 0.125 0.125 0 0.15625 0.125 
        0 0.125 0.1875 0.03125 0.125 0.1875 0 0.15625 0.1875 0.03125 0.125 0.15625 
        0.09375 0.0625 0.1875 0.09375 0.03125 0.21875 0.0625 0.0625 0.1875 0.0625 0.09375 0.1875 
        0.03125 0.09375 0.21875 0.03125 0.09375 0.15625 0.03125 0.03125 0.21875 0.03125 0.0625 0.1875 
        0 0.09375 0.1875 0.03125 0.0625 0.21875 0.21875 0 0.0625 0.1875 0 0.125 
        0.1875 0.03125 0.0625 0.15625 0.0625 0.0625 0.15625 0 0.125 0.15625 0.03125 0.09375 
        0.125 0 0.1875 0.15625 0 0.1875 0.125 0.03125 0.1875 0.125 0.0625 0.125 
        0.15625 0 0.15625 0.125 0.03125 0.125 0.125 0.09375 0.0625 0.0625 0.15625 0.0625 
        0.09375 0.125 0.0625 0.09375 0.0625 0.125 0.09375 0.09375 0.09375 0.09375 0.0625 0.15625 
        0.09375 0 0.1875 0.0625 0.03125 0.1875 0.09375 0 0.21875 0.09375 0.03125 0.15625 
        0.0625 0.09375 0.125 0 0.5 0 0 0.4375 0.0625 0.03125 0.4375 0 
        0 0.46875 0 0 0.4375 0 0.0625 0.375 0 0.03125 0.40625 0.03125 
        0 0.375 0.125 0.03125 0.375 0.0625 0 0.40625 0.0625 0 0.375 0 
        0 0.375 0.0625 0.03125 0.375 0 0 0.40625 0 0.03125 0.375 0.03125 
        0.125 0.25 0 0.0625 0.3125 0 0.09375 0.3125 0 0.09375 0.28125 0.03125 
        0.0625 0.3125 0.0625 0.0625 0.34375 0 0.03125 0.34375 0.03125 0.03125 0.34375 0.09375 
        0 0.25 0.25 0 0.3125 0.1875 0.03125 0.25 0.1875 0 0.28125 0.1875 
        0 0.3125 0.125 0.0625 0.25 0.125 0.03125 0.28125 0.15625 0.03125 0.3125 0.125 
        0 0.34375 0.125 0.03125 0.3125 0.0625 0 0.34375 0.0625 0.03125 0.3125 0.09375 
        0.09375 0.25 0.0625 0.0625 0.28125 0.0625 0 0.25 0.0625 0.03125 0.25 0 
        0 0.28125 0 0 0.3125 0 0.0625 0.25 0 0.03125 0.25 0.03125 
        0 0.25 0.125 0.03125 0.25 0.0625 0 0.28125 0.0625 0 0.3125 0.0625 
        0.03125 0.3125 0 0 0.34375 0 0.03125 0.28125 0.03125 0.09375 0.25 0 
        0.09375 0.25 0.03125 0.0625 0.25 0.0625 0.0625 0.28125 0 0.03125 0.3125 0.03125 
        0.03125 0.25 0.09375 0 0.25 0.1875 0.03125 0.25 0.15625 0.03125 0.25 0.125 
        0 0.28125 0.125 0.03125 0.28125 0.09375 0.21875 0.0625 0 0.21875 0.03125 0.03125 
        0.1875 0.0625 0.0625 0.1875 0.125 0 0.1875 0.09375 0 0.15625 0.125 0 
        0.15625 0.09375 0.03125 0.125 0.125 0.125 0.125 0.125 0.0625 0.15625 0.125 0.0625 
        0.15625 0.09375 0.09375 0.15625 0.125 0.03125 0.125 0.1875 0.0625 0.15625 0.1875 0 
        0.125 0.21875 0 0.125 0.1875 0 0.15625 0.15625 0.03125 0.125 0.15625 0.0625 
        0.125 0.15625 0 0.03125 0.21875 0.03125 0.0625 0.1875 0.0625 0.0625 0.21875 0 
        0.09375 0.1875 0 0.09375 0.15625 0.03125 0.09375 0.1875 0.0625 0.09375 0.15625 0.09375 
        0.09375 0.1875 0.03125 0.09375 0.21875 0.03125 0.03125 0.21875 0.21875 0.0625 0.1875 0.1875 
        0.03125 0.21875 0.15625 0.0625 0.1875 0.125 0.09375 0.1875 0.125 0.09375 0.15625 0.15625 
        0.0625 0.21875 0.125 0.09375 0.21875 0.09375 0.09375 0.1875 0.09375 0.03125 0.21875 0.09375 
        0.0625 0.21875 0.0625 0 0.0625 0.4375 0.03125 0.03125 0.40625 0 0.125 0.375 
        0.03125 0.0625 0.375 0 0.09375 0.375 0 0.125 0.3125 0.03125 0.0625 0.34375 
        0.09375 0.03125 0.28125 0.0625 0.0625 0.3125 0.03125 0.09375 0.28125 0.03125 0.09375 0.34375 
        0 0.1875 0.3125 0.03125 0.1875 0.25 0 0.21875 0.25 0 0.1875 0.25 
        0.0625 0.125 0.25 0.03125 0.15625 0.28125 0.03125 0.125 0.3125 0 0.15625 0.3125 
        0.03125 0.125 0.25 0 0.15625 0.25 0.03125 0.125 0.28125 0.09375 0.0625 0.25 
        0.0625 0.09375 0.25 0.03125 0.1875 0.09375 0.03125 0.1875 0.125 0 0.21875 0.125 
        0 0.1875 0.1875 0.03125 0.15625 0.15625 0.09375 0.0625 0.21875 0.0625 0.125 0.1875 
        0.03125 0.125 0.21875 0.03125 0.1875 0.15625 0.03125 0.1875 0.21875 0.03125 0.1875 0.1875 
        0 0.21875 0.1875 0.03125 0.15625 0.21875 0.15625 0.0625 0.125 0.15625 0.0625 0.09375 
        0.125 0.0625 0.1875 0.15625 0.03125 0.15625 0.125 0.09375 0.125 0.09375 0.125 0.125 
        0.09375 0.125 0.09375 0.09375 0.09375 0.15625 0.09375 0.125 0.1875 0.0625 0.15625 0.1875 
        0.09375 0.09375 0.21875 0.09375 0.125 0.15625 0.0625 0.15625 0.125 0.5 0 0 
        0.4375 0.0625 0 0.46875 0 0 0.46875 0 0.03125 0.4375 0 0.0625 
        0.4375 0 0 0.4375 0.03125 0 0.375 0.125 0 0.40625 0.0625 0 
        0.40625 0.0625 0.03125 0.375 0 0.125 0.375 0.0625 0.0625 0.40625 0 0.0625 
        0.40625 0 0.09375 0.40625 0.03125 0.03125 0.375 0 0 0.375 0 0.0625 
        0.40625 0 0 0.375 0.03125 0 0.375 0.0625 0 0.40625 0 0.03125 
        0.375 0.03125 0.0625 0.375 0.09375 0 0.25 0.25 0 0.3125 0.1875 0 
        0.28125 0.1875 0 0.28125 0.1875 0.03125 0.3125 0.125 0.0625 0.3125 0.125 0 
        0.3125 0.15625 0 0.34375 0.125 0 0.34375 0.125 0.03125 0.34375 0.0625 0.0625 
        0.34375 0.0625 0.09375 0.34375 0.09375 0.03125 0.34375 0.0625 0 0.34375 0.0625 0.03125 
        0.25 0 0.25 0.25 0.0625 0.1875 0.28125 0 0.1875 0.28125 0 0.21875 
        0.3125 0 0.1875 0.3125 0 0.125 0.28125 0.03125 0.15625 0.25 0.125 0.125 
        0.28125 0.0625 0.125 0.28125 0.0625 0.15625 0.3125 0.0625 0.125 0.34375 0 0.125 
        0.34375 0 0.15625 0.3125 0.03125 0.125 0.34375 0 0.0625 0.34375 0.03125 0.03125 
        0.3125 0.0625 0.0625 0.34375 0 0.09375 0.34375 0.03125 0.09375 0.28125 0.09375 0.09375 
        0.25 0.1875 0.0625 0.28125 0.15625 0.03125 0.28125 0.125 0.0625 0.28125 0.125 0.09375 
        0.3125 0.09375 0.0625 0.25 0 0.0625 0.28125 0 0 0.25 0.03125 0 
        0.25 0.0625 0 0.3125 0 0 0.28125 0 0.03125 0.25 0 0.125 
        0.28125 0 0.0625 0.25 0.03125 0.0625 0.25 0.125 0 0.25 0.0625 0.0625 
        0.28125 0.0625 0 0.25 0.09375 0 0.28125 0.03125 0.03125 0.3125 0.0625 0 
        0.34375 0 0 0.34375 0 0.03125 0.3125 0 0.0625 0.3125 0.03125 0 
        0.28125 0.0625 0.03125 0.28125 0 0.09375 0.25 0 0.1875 0.25 0.03125 0.1875 
        0.25 0.0625 0.125 0.28125 0 0.15625 0.28125 0 0.125 0.25 0.03125 0.125 
        0.28125 0.0625 0.0625 0.25 0.09375 0.0625 0.28125 0.03125 0.09375 0.3125 0.03125 0.0625 
        0.25 0.21875 0 0.25 0.1875 0 0.25 0.15625 0.0625 0.25 0.125 0.0625 
        0.28125 0.125 0 0.25 0.15625 0 0.28125 0.125 0.03125 0.3125 0.09375 0 
        0.28125 0.09375 0.03125 0.25 0.09375 0.125 0.28125 0.0625 0.09375 0.0625 0.4375 0 
        0.03125 0.4375 0.03125 0.0625 0.375 0.0625 0.0625 0.40625 0 0.125 0.375 0 
        0.09375 0.375 0 0.09375 0.375 0.03125 0.125 0.25 0.125 0.125 0.3125 0.0625 
        0.09375 0.3125 0.0625 0.09375 0.3125 0.09375 0.09375 0.34375 0.03125 0.125 0.25 0.0625 
        0.125 0.28125 0 0.125 0.3125 0 0.09375 0.3125 0.03125 0.125 0.28125 0.0625 
        0.125 0.34375 0 0.1875 0.3125 0 0.21875 0.25 0 0.21875 0.25 0.03125 
        0.1875 0.25 0.0625 0.1875 0.25 0 0.1875 0.28125 0 0.15625 0.3125 0 
        0.15625 0.3125 0.03125 0.15625 0.25 0.0625 0.15625 0.25 0.09375 0.15625 0.28125 0.03125 
[...]
      <PointData Scalars="u">
        <DataArray type="Float64" Name="u" NumberOfComponents="1" format="ascii">
        -7.866654e-10 -7.82614e-10 -0.02461444 -7.863089e-10 -7.780262e-10 -0.04912438 -0.02458622 -7.728077e-10 -0.02451985 -7.820366e-10 -7.677974e-10 -7.754588e-10 
        -0.02451573 -7.783591e-10 -0.02456653 -0.09727357 -0.04891682 -0.07337032 -0.07329332 -0.04892937 -0.0490659 -0.02449323 -0.02439025 -7.344858e-10 
        -7.569186e-10 -0.02373066 -7.566521e-10 -7.657358e-10 -0.04834241 -0.02399603 -0.0242247 -7.726127e-10 -0.0244195 -7.746743e-10 -0.02436924 -0.07308304 
        -0.04887033 -7.291824e-10 -7.491757e-10 -0.02372706 -7.464937e-10 -7.51759e-10 -0.04832963 -0.02397571 -7.553273e-10 -0.02412093 -7.61788e-10 -7.65392e-10 
        -0.02422105 -7.656049e-10 -0.02419787 -0.07307761 -0.07322525 -0.04872143 -0.04867497 -0.024371 -0.0241681 -7.495275e-10 -0.02397379 -0.02412033 
        -7.649884e-10 -0.02429464 -0.1867387 -0.1428934 -0.1655136 -0.1653493 -0.1429049 -0.1434652 -0.1433156 -0.09572177 -0.1201886 -0.1200707 
        -0.0957346 -0.09649038 -0.1201939 -0.1195927 -0.1204276 -0.09688972 -0.1206646 -0.09716774 -0.09687732 -0.120542 -0.0967828 -0.09639837 
        -0.04734561 -0.02370212 -0.04812622 -0.04789017 -0.0722028 -0.07212887 -0.07278604 -0.0724166 -0.07264206 -0.07300639 -0.02340074 -0.04735844 
        -0.02389513 -0.04812611 -0.07220808 -0.07154167 -0.04828108 -0.07271132 -0.07264078 -0.02399105 -0.04847377 -5.762265e-10 -6.263618e-10 -0.01967351 
        -6.254734e-10 -6.601185e-10 -0.04193974 -0.02036117 -6.693681e-10 -0.02101 -6.687054e-10 -7.146347e-10 -6.968879e-10 -0.02199366 -6.950763e-10 -0.0215583 
        -0.0910644 -0.04571938 -0.06598535 -0.06739833 -0.04416716 -0.04409005 -0.02247968 -0.02158847 -7.053581e-10 -0.02303348 -7.34124e-10 -7.266299e-10 
        -0.04596992 -0.02259993 -0.02212835 -7.048664e-10 -0.02291212 -7.252862e-10 -0.02257317 -0.06867238 -0.04589975 -0.0236201 -7.423989e-10 -7.384763e-10 
        -0.04750629 -0.02376178 -0.02380936 -7.515718e-10 -7.384766e-10 -0.02328733 -7.34205e-10 -0.02357492 -0.07041203 -0.06969477 -0.04712809 -0.04685291 
        -0.02314759 -0.02376166 -0.0233766 -0.02361931 -7.485293e-10 -0.02329171 -0.1648746 -0.1412187 -0.1427537 -0.119711 -0.1187671 -0.1194747 
        -0.09379793 -0.1163752 -0.09367974 -0.09531907 -0.117685 -0.09562338 -0.09600279 -0.04767818 -0.07189932 -0.07189894 -0.07204141 -0.07123101 
        -0.0707418 -0.04729349 -0.06977509 -0.07146728 -0.04786818 -5.697915e-10 -6.158402e-10 -0.01967 -6.024785e-10 -6.202967e-10 -0.04192595 -0.0203287 
        -6.45278e-10 -0.02085952 -6.433318e-10 -6.636136e-10 -6.598216e-10 -0.02100642 -6.489307e-10 -0.02097143 -0.09105123 -0.04415379 -0.06598013 -0.06731141 
        -0.04389048 -0.04309591 -0.02156031 -0.02127568 -6.6728e-10 -6.619236e-10 -0.02194119 -6.834486e-10 -6.83682e-10 -0.04499828 -0.02181058 -0.02159154 
        -6.696972e-10 -0.02199478 -6.833474e-10 -0.02182652 -0.06831395 -0.04485855 -7.263054e-10 -0.0230299 -7.207886e-10 -6.998572e-10 -0.04595687 -0.02300246 
        -7.146706e-10 -0.02291308 -7.163103e-10 -6.965827e-10 -0.02212476 -6.883218e-10 -0.02257515 -0.06866717 -0.06858065 -0.04571994 -0.04511012 -0.02209401 
        -0.02276171 -6.950982e-10 -0.02227669 -0.02255026 -7.041432e-10 -0.02232099 -0.1648698 -0.1651924 -0.1423274 -0.1412067 -0.1421928 -0.1187619 
        -0.1194758 -0.09409974 -0.09531903 -0.1182648 -0.1184969 -0.1186393 -0.09335537 -0.11637 -0.09252041 -0.093785 -0.1175619 -0.09443705 
        -0.0948537 -0.02337855 -0.04712845 -0.04670481 -0.07073658 -0.07146872 -0.07041268 -0.07083554 -0.07065745 -0.06969628 -0.0219835 -0.04535626 
        -0.02268461 -0.04646681 -0.06942714 -0.06956366 -0.04578686 -0.06901325 -0.07000242 -0.0231477 -0.04647618 -6.161408e-10 -0.02032666 -6.45195e-10 
        -0.02085823 -6.576915e-10 -6.836172e-10 -0.02145357 -0.06730984 -0.04388974 -0.0223209 -0.02127564 -6.618631e-10 -0.02194105 -6.860302e-10 -6.950632e-10 
        -0.04499783 -0.02181062 -0.02159108 -6.776876e-10 -0.02254993 -7.096523e-10 -0.02209879 -0.06831307 -0.04541937 -0.02348139 -0.02328752 -7.313634e-10 
        -7.205205e-10 -0.02333299 -0.06943993 -0.04646655 -0.02294598 -0.02303703 -0.02236473 -0.02272984 -7.126005e-10 -0.02268462 -0.1182645 -0.1191088 
        -0.09335517 -0.1175607 -0.09481151 -0.07097569 -0.07151488 -0.07083542 -0.06942688 -0.04596821 -0.06901309 -0.07028024 -0.04703954 -0.3160367 
        -0.2902196 -0.3043034 -0.3040391 -0.2902228 -0.2912539 -0.2909928 -0.2573792 -0.275884 -0.2756314 -0.2573856 -0.2592991 -0.2758864 
        -0.2746289 -0.2763839 -0.2612344 -0.2602756 -0.2768844 -0.2609892 -0.2602697 -0.2766327 -0.2600273 -0.2590667 -0.1750893 -0.2184851 
        -0.1998423 -0.1996226 -0.2219025 -0.2227994 -0.220862 -0.2406702 -0.2404319 -0.2424915 -0.2413358 -0.2420387 -0.2434118 -0.2431824 
        -0.1751005 -0.1794129 -0.1998468 -0.1972293 -0.2184942 -0.2228082 -0.201827 -0.1808116 -0.2030009 -0.2011862 -0.2219026 -0.2406738 
        -0.2386007 -0.222576 -0.2434152 -0.2438674 -0.2245061 -0.2422695 -0.2420381 -0.2033886 -0.179413 -0.2018279 -0.2030011 -0.2019595 
        -0.2234222 -0.1860203 -0.206997 -0.1865505 -0.1860101 -0.2262303 -0.2067965 -0.1838573 -0.2062106 -0.1858298 -0.1838467 -0.1852836 
        -0.2062064 -0.1851105 -0.2066021 -0.2253692 -0.2443229 -0.2440928 -0.2253774 -0.2260099 -0.206008 -0.2052157 -0.1802283 -0.1800176 
        -0.1830913 -0.2020371 -0.2038345 -0.1836592 -0.2054089 -0.1843708 -0.2050159 -0.2251542 -0.1778427 -0.1802174 -0.1814391 -0.1830912 
        -0.2038302 -0.1822172 -0.2036239 -0.2243 -0.2050167 -0.1821422 -0.2044067 -0.03926366 -0.01962966 -0.04162877 -0.04065188 -0.08311397 
        -0.06265988 -0.06255098 -0.08916563 -0.08698156 -0.06558783 -0.06509114 -0.06429856 -0.09058301 -0.08938082 -0.08750113 -0.06588379 -0.08888717 
        -0.08541453 -0.1291976 -0.1551169 -0.1549227 -0.1337024 -0.1343855 -0.131943 -0.1086075 -0.1084488 -0.1124159 -0.1116883 -0.1107785 
        -0.1129933 -0.1128504 -0.1589767 -0.1568273 -0.1358553 -0.1388392 -0.1599144 -0.160225 -0.1586899 -0.1358555 -0.1142348 -0.1130253 
        -0.1374991 -0.1158399 -0.1146703 -0.1377511 -0.1151719 -0.1135587 -0.1599144 -0.1573902 -0.1589771 -0.1580737 -0.135876 -0.164709 
        -0.1642216 -0.162937 -0.1639028 -0.1383787 -0.116239 -0.1406179 -0.1399376 -0.1627698 -0.1634061 -0.1607868 -0.1622625 -0.1622627 
        -0.1625775 -0.1393302 -0.1596955 -0.1595171 -0.13653 -0.1613097 -0.1614147 -0.01891363 -0.03927794 -0.02020764 -0.08312793 -0.04162786 
        -0.06266509 -0.06075301 -0.04185373 -0.08751466 -0.06439609 -0.06429695 -0.0214577 -0.04308805 -0.02102671 -0.06558674 -0.06398326 -0.04355655 
        -0.06702946 -0.1337021 -0.155122 -0.1523117 -0.1292105 -0.134398 -0.1342164 -0.08916518 -0.1124152 -0.1103206 -0.08698098 -0.1086128 
        -0.1060237 -0.1107771 -0.1129985 -0.09093623 -0.09058261 -0.1109244 -0.08737324 -0.08999292 -0.04378556 -0.04445397 -0.06723893 -0.06590007 
        -0.06655965 -0.1640634 -0.1629418 -0.1639018 -0.140618 -0.1410614 -0.114803 -0.1383909 -0.1171752 -0.1614787 -0.1573891 -0.137751 
        -0.1575721 -0.1597004 -0.1613087 -0.1158394 -0.1165305 -0.1382236 -0.114669 -0.0676403 -0.09205453 -0.06841399 -0.09281391 -0.1135586 
        -0.1142536 -0.02066957 -0.04308867 -0.04281438 -0.06655979 -0.02154186 -0.04378574 -0.02128713 -0.0672394 -0.0664292 -0.04409942 -0.06786663 
        -0.1369619 -0.1142346 -0.112583 -0.08987171 -0.114458 -0.09207136 -0.09205478 -0.09071693 -0.09107451 -0.04462946 -0.06777331 -0.06669076 
        -0.06764033 -0.1416157 -0.1176383 -0.1167595 -0.1398774 -0.1165306 -0.06868461 -0.09318133 -0.1156257 -3.787228e-12 -5.639191e-11 -0.002009056 
        -3.315893e-11 -1.007617e-10 -0.00925724 -0.003240888 -1.394702e-10 -0.004551549 -1.298711e-10 -2.414971e-10 -1.973741e-10 -0.006643213 -1.754608e-10 -0.005714658 
        -0.03897316 -0.01865677 -0.02171701 -0.02549236 -0.0144351 -0.0141591 -0.008001318 -0.005855318 -3.063336e-10 -2.242818e-10 -0.009725153 -3.022649e-10 
        -2.85304e-10 -0.01948555 -0.008454766 -0.007177153 -2.183465e-10 -0.009311922 -2.710082e-10 -0.008350147 -0.02921684 -0.01926645 -4.645077e-10 -4.439186e-10 
        -0.0141865 -4.215397e-10 -3.647255e-10 -0.02641752 -0.01374735 -4.121572e-10 -0.01321361 -3.950247e-10 -3.322456e-10 -0.01076347 -3.096795e-10 -0.01202407 
        -0.03533811 -0.03255584 -0.02357484 -0.02274237 -0.01010381 -0.01256663 -3.660956e-10 -0.01085274 -0.01178969 -3.559172e-10 -0.01057721 -0.1387914 
        -0.1050642 -0.1110133 -0.1170489 -0.09597424 -0.08451601 -0.09563999 -0.06865842 -0.07942766 -0.08395597 -0.05695598 -0.06387932 -0.07084675 
        -0.07580347 -0.07551623 -0.04831715 -0.06017693 -0.04798927 -0.05588696 -0.06561592 -0.05667836 -0.06275287 -0.03254003 -0.01527665 -0.03074901 
        -0.02968307 -0.04602433 -0.04895932 -0.04204193 -0.04515383 -0.04421963 -0.03876944 -0.01093504 -0.0242507 -0.01295137 -0.02808327 -0.03630588 
        -0.03963965 -0.02407096 -0.03280924 -0.0394296 -0.01433704 -0.02739361 -5.189313e-10 -0.01811527 -5.750383e-10 -5.648006e-10 -0.03617477 -0.01724335 
        -4.545816e-10 -0.01633421 -5.173406e-10 -5.451179e-10 -5.059996e-10 -0.01791517 -5.60527e-10 -0.01719652 -0.07177342 -0.03576544 -0.05407132 -0.0514994 
        -0.03262855 -0.03606363 -0.01703706 -0.01535117 -3.834974e-10 -0.01212361 -3.805798e-10 -4.397289e-10 -0.02864663 -0.01324343 -0.01433362 -4.524403e-10 
        -0.01610038 -5.003463e-10 -0.01529562 -0.0487857 -0.03249994 -0.01629015 -4.941537e-10 -5.122317e-10 -0.03456822 -0.01588879 -0.01539299 -4.694536e-10 
        -4.829138e-10 -0.01731245 -5.343412e-10 -0.01638528 -0.05348104 -0.05134895 -0.03215141 -0.03526867 -0.01676573 -0.01478721 -0.01317653 -0.01405665 
        -4.32206e-10 -0.0151076 -0.1227448 -0.1061886 -0.1058983 -0.08820822 -0.08052831 -0.08471843 -0.06479105 -0.08915814 -0.07156796 -0.07098826 
        -0.08496499 -0.06455341 -0.07002033 -0.03366111 -0.05170607 -0.04809791 -0.05007926 -0.05087496 -0.04285239 -0.02849583 -0.04588651 -0.0457098 
        -0.03157002 -0.01950175 -5.961026e-10 -5.992046e-10 -0.04072398 -0.02000538 -0.02040428 -6.277881e-10 -5.854636e-10 -6.20675e-10 -0.01963761 -6.013e-10 
        -0.02006014 -0.08341195 -0.03982444 -0.06238783 -0.06275552 -0.04173971 -0.04053263 -0.01983373 -0.02070337 -0.02107821 -6.540785e-10 -6.309042e-10 
        -0.0420679 -0.02103661 -0.02091367 -6.464642e-10 -0.01995099 -6.133956e-10 -0.02046845 -0.06287766 -0.04101351 -5.302955e-10 -0.01684293 -5.088589e-10 
        -5.389043e-10 -0.037028 -0.01773261 -5.854341e-10 -0.01854528 -5.674906e-10 -5.901394e-10 -0.0186889 -5.698908e-10 -0.01865239 -0.05953932 -0.06130838 
        -0.03982429 -0.03864606 -0.01935829 -0.01928387 -6.308811e-10 -0.02054829 -0.01995087 -6.156186e-10 -0.0199887 -0.1319025 -0.127762 -0.1141481 
        -0.1193634 -0.1129334 -0.09340193 -0.09107934 -0.08075612 -0.07518153 -0.1002842 -0.09834543 -0.09698777 -0.08276303 -0.1027693 -0.08102778 
        -0.07777276 -0.1017475 -0.07941834 -0.07365413 -0.01660456 -0.0361412 -0.03498969 -0.05405586 -0.05302087 -0.05860531 -0.05776415 -0.05642901 
        -0.05919221 -0.02103664 -0.04173937 -0.0198338 -0.03919875 -0.06238743 -0.06176407 -0.04085434 -0.06275553 -0.06059043 -0.01836198 -0.03819653 
        -0.01887366 -0.01950027 -6.129124e-10 -5.991171e-10 -0.01873671 -0.05632684 -0.03892272 -0.01850387 -0.02000538 -0.02091341 -6.513538e-10 -6.206028e-10 
        -0.04072319 -0.02070345 -0.02040369 -6.380372e-10 -0.01898009 -5.903799e-10 -0.01972229 -0.05818522 -0.0384932 -0.0172311 -0.01810088 -5.560131e-10 
        -5.708916e-10 -0.01775315 -0.05591835 -0.03788824 -0.01817775 -0.0189026 -0.0203072 -0.01963723 -6.081832e-10 -0.01935427 -0.09588548 -0.0921852 
        -0.07720248 -0.09284555 -0.07636254 -0.05664889 -0.05426943 -0.05523303 -0.06087116 -0.04004008 -0.05968779 -0.05884934 -0.03710602 -0.3032508 
        -0.2871116 -0.2899582 -0.2748724 -0.2728724 -0.2743738 -0.2456443 -0.2525274 -0.2678022 -0.2522531 -0.2563714 -0.2705927 -0.2571275 
        -0.2580806 -0.1989599 -0.2191972 -0.2199395 -0.2397141 -0.2397139 -0.240162 -0.235048 -0.2376195 -0.1942095 -0.212392 -0.1970034 
        -0.1989595 -0.2360687 -0.2182473 -0.2295498 -0.2327839 -0.217531 -0.2330449 -0.2383576 -0.2001151 -0.2001151 -0.200498 -0.2207764 
        -0.1503116 -0.1669208 -0.1499928 -0.1590866 -0.1946024 -0.1725739 -0.1601834 -0.1777946 -0.1599013 -0.171576 -0.1674544 -0.1858107 
        -0.1662401 -0.1822716 -0.2113467 -0.221055 -0.2255454 -0.2044474 -0.2041523 -0.1897465 -0.182547 -0.1684333 -0.1748719 -0.1742147 
        -0.1907491 -0.1868755 -0.1681811 -0.1932457 -0.1731166 -0.1905016 -0.2121243 -0.1770059 -0.1769857 -0.1790934 -0.1769855 -0.1962958 
        -0.1751555 -0.1986114 -0.2163333 -0.1951622 -0.1784025 -0.1963143 -0.04033232 -0.06221751 -0.06439457 -0.06345757 -0.08678445 -0.08489257 
        -0.08540867 -0.06349407 -0.08739707 -0.08486283 -0.1543355 -0.131639 -0.1312249 -0.1079673 -0.1106677 -0.1095567 -0.1077313 -0.1093496 
        -0.1543349 -0.1316386 -0.1558878 -0.1568062 -0.111541 -0.1344265 -0.1077311 -0.1079401 -0.1326733 -0.1097775 -0.1113236 -0.1571097 
        -0.1558879 -0.1568064 -0.1339029 -0.1365545 -0.1408354 -0.1456873 -0.1435997 -0.1281726 -0.1053968 -0.1261543 -0.1244297 -0.1490152 
        -0.1447495 -0.1514943 -0.1483008 -0.1519738 -0.1504631 -0.1300827 -0.1531624 -0.1551704 -0.1305899 -0.1528666 -0.1545691 -0.05869715 
        -0.03918075 -0.07788521 -0.05645632 -0.06064037 -0.06221619 -0.04125204 -0.06028452 -0.1491717 -0.1227971 -0.12901 -0.1079663 -0.1031919 
        -0.1058591 -0.09671235 -0.07770581 -0.082528 -0.1000754 -0.08296962 -0.0863268 -0.04248332 -0.06439391 -0.06345745 -0.1280503 -0.133011 
        -0.1373304 -0.1219327 -0.1148753 -0.09305895 -0.1151294 -0.09931177 -0.1375833 -0.1521108 -0.1284404 -0.1456608 -0.1418126 -0.1454368 
        -0.1024651 -0.1044955 -0.1225727 -0.09988894 -0.06504776 -0.08540804 -0.062719 -0.08179132 -0.1095565 -0.1053491 -0.04196409 -0.06504777 
        -0.06543446 -0.04282331 -0.06425162 -0.1328434 -0.1106672 -0.1113235 -0.08522406 -0.08678425 -0.08844269 -0.0880966 -0.04299116 -0.06543426 
        -0.06556187 -0.120864 -0.1032967 -0.1060281 -0.1274893 -0.1070983 -0.06400107 -0.08422143 -0.1084839 -2.247042e-11 3.805368e-11 -0.002049112 
        -8.301673e-12 -4.123597e-11 -0.009239857 -0.003028546 4.684889e-11 -0.003822244 -4.692999e-11 -1.277895e-10 -9.657487e-11 -0.004564682 -9.826065e-11 -0.004377156 
        -0.03895604 -0.01441756 -0.02172015 -0.02518294 -0.0133885 -0.01182583 -0.005716931 -0.004401063 5.786434e-11 5.321632e-11 -0.005667331 -7.139249e-11 
        -1.307308e-10 -0.01615593 -0.005300369 -0.004923586 -6.149493e-11 -0.006648237 -1.612741e-10 -0.005944789 -0.02804539 -0.01606205 -2.976031e-10 -2.845669e-10 
        -0.009725916 -2.669991e-10 -2.145041e-10 -0.01946836 -0.009624228 -2.406884e-10 -0.009315511 -2.512584e-10 -1.959433e-10 -0.007181808 -1.833932e-10 -0.008352437 
        -0.02921649 -0.02892454 -0.01865937 -0.01696985 -0.007048682 -0.008782655 -1.532166e-10 -0.006992126 -0.008021811 -1.998297e-10 -0.007393881 -0.1387782 
        -0.09595932 -0.1110087 -0.1167191 -0.09467704 -0.08450057 -0.09037991 -0.05693982 -0.07084285 -0.07551801 -0.05269771 -0.05588845 -0.06956347 
        -0.07314102 -0.07052401 -0.04705191 -0.06017419 -0.04370533 -0.04830045 -0.06528046 -0.05157159 -0.05271474 -0.02423404 -0.01085503 -0.02357706 
        -0.0218936 -0.03630339 -0.03943146 -0.03534132 -0.03765838 -0.036064 -0.03255779 -0.005914776 -0.01805709 -0.00853058 -0.0215616 -0.03239792 
        -0.03403997 -0.01892767 -0.03041757 -0.03412141 -0.01010332 -0.02116627 6.490886e-11 6.44957e-11 -0.006825328 -8.67025e-11 -1.848743e-10 -0.02066411 
        -0.006754756 6.327225e-11 -0.006725921 -8.539132e-11 -2.917474e-10 -1.786138e-10 -0.01002063 -2.554304e-10 -0.008501944 -0.05909097 -0.02490011 -0.03865826 
        -0.03812333 -0.02019194 -0.02308343 -0.009831942 -0.006602777 6.112638e-11 -0.006176709 -7.813753e-11 -1.684604e-10 -0.01935247 -0.006332424 -0.006516932 
        -8.263283e-11 -0.009605189 -2.437805e-10 -0.00819507 -0.03741793 -0.02223724 -0.01179248 -3.342051e-10 -3.3199e-10 -0.02641902 -0.01136664 -0.01076515 
        -2.96214e-10 -2.711231e-10 -0.01176281 -3.269735e-10 -0.01130795 -0.04250347 -0.04016489 -0.02356087 -0.02604297 -0.01077999 -0.009968047 -0.007710236 
        -0.008963863 -2.259801e-10 -0.009310511 -0.121478 -0.1017136 -0.1000332 -0.07942965 -0.07611485 -0.07805163 -0.05657157 -0.08053227 -0.06078682 
        -0.0611679 -0.07855659 -0.05705468 -0.05999316 -0.02588454 -0.04204458 -0.03959189 -0.04102637 -0.04118966 -0.03540307 -0.02090166 -0.03651609 
        -0.03772196 -0.02405653 -5.644826e-10 -0.01811192 -5.488894e-10 -5.120624e-10 -0.03615993 -0.01806486 -5.451919e-10 -0.01791687 -5.415447e-10 -4.472045e-10 
        -5.056474e-10 -0.01633121 -4.881951e-10 -0.01719866 -0.07175841 -0.03261312 -0.0540664 -0.05392212 -0.03576676 -0.03444369 -0.01627564 -0.01766525 
        -4.644742e-10 -5.122665e-10 -0.01629077 -4.845845e-10 -4.829473e-10 -0.03456936 -0.01685518 -0.01731332 -5.205639e-10 -0.01610234 -4.796254e-10 -0.01676562 
        -0.05348292 -0.03401695 -3.655823e-10 -0.01212236 -3.465735e-10 -3.755167e-10 -0.02863058 -0.01317878 -4.121021e-10 -0.01405895 -4.10433e-10 -4.393185e-10 
        -0.01433125 -4.205994e-10 -0.0142647 -0.0487812 -0.05135069 -0.03215298 -0.03067707 -0.01529782 -0.01478701 -4.438809e-10 -0.01588855 -0.01539405 
        -4.547055e-10 -0.01580734 -0.1227399 -0.1224252 -0.1050651 -0.1061742 -0.1012235 -0.08052368 -0.0802513 -0.06865954 -0.06388063 -0.08820991 
        -0.08702182 -0.08472011 -0.07098937 -0.08915311 -0.06837536 -0.06477546 -0.08891853 -0.06754648 -0.06096168 -0.0120412 -0.02808514 -0.02648313 
        -0.04284862 -0.04264897 -0.04810013 -0.04723812 -0.04571159 -0.04861243 -0.01561274 -0.03254079 -0.01485442 -0.03075033 -0.05170737 -0.05036199 
        -0.03272294 -0.05274453 -0.05007922 -0.01370801 -0.03017519 -1.87913e-10 -0.008663031 -3.12604e-10 -0.01025422 -2.622058e-10 -3.050883e-10 -0.01015249 
        -0.04171492 -0.02572416 -0.01131568 -0.01163271 -3.996107e-10 -0.01481842 -4.323024e-10 -3.862569e-10 -0.02962494 -0.01389702 -0.01284153 -3.60728e-10 
        -0.01243069 -3.476924e-10 -0.01266216 -0.04439539 -0.02735584 -0.01256633 -0.01321492 -3.802012e-10 -3.645303e-10 -0.01256785 -0.04356084 -0.02836273 
        -0.01212947 -0.01374704 -0.01453864 -0.01418727 -4.116207e-10 -0.01338133 -0.085353 -0.08267879 -0.0647224 -0.08319223 -0.06503538 -0.04602591 
        -0.04421951 -0.04445036 -0.04870341 -0.03052618 -0.04671803 -0.04750577 -0.02864927 -0.3032494 -0.3037759 -0.2891755 -0.2871079 -0.2889244 
        -0.2728697 -0.2743742 -0.2533315 -0.2563714 -0.2718197 -0.2723133 -0.2726074 -0.2456371 -0.2514499 -0.2677991 -0.249334 -0.2525207 
        -0.2703255 -0.2541621 -0.2551975 -0.1942049 -0.1970044 -0.2175311 -0.2123826 -0.2156593 -0.2360648 -0.2383583 -0.2350483 -0.2363858 
        -0.2358112 -0.2295457 -0.2327847 -0.1608656 -0.1671433 -0.1854896 -0.1858427 -0.2098182 -0.2082228 -0.1881699 -0.1715763 -0.1903524 
        -0.1914562 -0.2146535 -0.2319811 -0.2324156 -0.2116768 -0.2284429 -0.2292704 -0.2113469 -0.2306658 -0.2337723 -0.1920422 -0.1742149 
        -0.193966 -0.1932462 -0.1951623 -0.2146681 -0.1490701 -0.1669159 -0.1447432 -0.150299 -0.194592 -0.172265 -0.1558149 -0.176603 
        -0.1542866 -0.1601714 -0.1590871 -0.1777897 -0.1554382 -0.1774937 -0.2044376 -0.2210507 -0.2252609 -0.2032941 -0.1997535 -0.1822728 
        -0.180026 -0.1596309 -0.1636085 -0.1645366 -0.1844205 -0.1826135 -0.1603886 -0.1858114 -0.1634741 -0.184481 -0.2075571 -0.1719498 
        -0.1684217 -0.1710324 -0.1674547 -0.1868708 -0.1644957 -0.1905027 -0.2086421 -0.1866066 -0.1682628 -0.1884838 -0.01887576 -0.03892383 